                         Program Version 6.1.0-f.0  -   RELEASE   -
|  1> ! B3LYP 6-31+G(d,p) NumFreq
|  2> %elprop Polar 1 end
|  3>
|  4> * xyz 0 1
|  5> C    0.000000    0.000000    0.000000
|  6> H    0.629118    0.629118    0.629118
|  7> H   -0.629118   -0.629118    0.629118
|  8> H   -0.629118    0.629118   -0.629118
|  9> H    0.629118   -0.629118   -0.629118
| 10> *
| 11>
| 12>                          ****END OF INPUT****

CARTESIAN COORDINATES (ANGSTROEM)
---------------------------------
  C      0.000000    0.000000    0.000000
  H      0.629118    0.629118    0.629118
  H     -0.629118   -0.629118    0.629118
  H     -0.629118    0.629118   -0.629118
  H      0.629118   -0.629118   -0.629118

 Total Charge           Charge          ....    0
 Multiplicity           Mult            ....    1
 Number of Electrons    NEL             ....   10
 Basis Dimension        Dim             ....   38

ORBITAL ENERGIES
----------------

  NO   OCC          E(Eh)            E(eV)
   0   2.0000     -10.163292      -276.5572
   1   2.0000      -0.693298       -18.8656
   2   2.0000      -0.390928       -10.6377
   3   2.0000      -0.390928       -10.6377
   4   2.0000      -0.390928       -10.6377
   5   0.0000       0.019069         0.5189
   6   0.0000       0.063700         1.7334
   7   0.0000       0.063700         1.7334
   8   0.0000       0.063700         1.7334
   9   0.0000       0.185063         5.0358

MULLIKEN ATOMIC CHARGES
-----------------------
   0 C :   -0.599915
   1 H :    0.149979
   2 H :    0.149979
   3 H :    0.149979
   4 H :    0.149979
Sum of atomic charges:    0.0000000

LOEWDIN ATOMIC CHARGES
----------------------
   0 C :   -0.471585
   1 H :    0.117896
   2 H :    0.117896
   3 H :    0.117896
   4 H :    0.117896

  Mayer bond orders larger than 0.100000
B(  0-C ,  1-H ) :   0.9687 B(  0-C ,  2-H ) :   0.9687 B(  0-C ,  3-H ) :   0.9687
B(  0-C ,  4-H ) :   0.9687

FINAL SINGLE POINT ENERGY       -40.489489068010

DIPOLE MOMENT
-------------

Method             : SCF
Type of density    : Electron Density
Multiplicity       :   1
Irrep              :   0
Energy             :   -40.4894890680103430 Eh
Basis              : AO
                                X                 Y                 Z
Electronic contribution:     -0.000000013      -0.000000016      -0.000000016
Nuclear contribution   :      0.000000000       0.000000000       0.000000000
                        -----------------------------------------
Total Dipole Moment    :     -0.000000013      -0.000000016      -0.000000016
                        -----------------------------------------
Magnitude (a.u.)       :      0.000000026
Magnitude (Debye)      :      0.000000066

VIBRATIONAL FREQUENCIES
-----------------------

Scaling factor for frequencies =  1.000000000  (already applied!)

     0:       0.00 cm**-1
     1:       0.00 cm**-1
     2:       0.00 cm**-1
     3:       0.00 cm**-1
     4:       0.00 cm**-1
     5:       0.00 cm**-1
     6:    1337.80 cm**-1
     7:    1337.88 cm**-1
     8:    1338.86 cm**-1
     9:    1559.94 cm**-1
    10:    1560.06 cm**-1
    11:    3066.55 cm**-1
    12:    3180.18 cm**-1
    13:    3180.85 cm**-1
    14:    3180.91 cm**-1

IR SPECTRUM
-----------

 Mode   freq       eps      Int      T**2         TX        TY        TZ
       cm**-1   L/(mol*cm) km/mol    a.u.
----------------------------------------------------------------------------
  6:   1337.80   0.003751   18.96  0.000875  (-0.003893 -0.022864  0.018360)
  7:   1337.88   0.003751   18.96  0.000875  ( 0.024547  0.007590  0.014658)
  8:   1338.86   0.003918   19.80  0.000913  (-0.016433  0.017533  0.018324)
  9:   1559.94   0.000001    0.01  0.000000  (-0.000020  0.000363 -0.000378)
 10:   1560.06   0.000001    0.01  0.000000  ( 0.000418  0.000230  0.000193)
 11:   3066.55   0.000001    0.01  0.000000  (-0.000215  0.000221  0.000223)
 12:   3180.18   0.004917   24.85  0.000483  ( 0.012179 -0.013132 -0.012718)
 13:   3180.85   0.004673   23.62  0.000458  ( 0.006170  0.016910 -0.011595)
 14:   3180.91   0.004673   23.62  0.000458  (-0.016736 -0.002843 -0.013050)

--------------------------
THERMOCHEMISTRY AT 298.15K
--------------------------

Temperature         ...   298.15 K
Pressure            ...     1.00 atm
Total Mass          ...    16.04 AMU
Quasi RRHO          ...     True
Cut-Off Frequency   ...     1.00 cm^-1

Throughout the following assumptions are being made:
  (1) The electronic state is orbitally nondegenerate
  (2) There are no thermally accessible electronically excited states
  (3) Hindered rotations indicated by low frequency modes are not
      treated as such but are treated as vibrations and this may
      cause some error
  (4) All equations used are the standard statistical mechanics
      equations for an ideal gas
  (5) All vibrations are strictly harmonic

freq.    1337.80  E(vib)   ...       0.01
freq.    1337.88  E(vib)   ...       0.01
freq.    1338.86  E(vib)   ...       0.01
freq.    1559.94  E(vib)   ...       0.00
freq.    1560.06  E(vib)   ...       0.00
freq.    3066.55  E(vib)   ...       0.00
freq.    3180.18  E(vib)   ...       0.00
freq.    3180.85  E(vib)   ...       0.00
freq.    3180.91  E(vib)   ...       0.00

------------
INNER ENERGY
------------

The inner energy is: U= E(el) + E(ZPE) + E(vib) + E(rot) + E(trans)
    E(el)   - is the total energy from the electronic structure calculation
              = E(kin-el) + E(nuc-el) + E(el-el) + E(nuc-nuc)
    E(ZPE)  - the the zero temperature vibrational energy from the frequency calculation
    E(vib)  - the the finite temperature correction to E(ZPE) due to population
              of excited vibrational states
    E(rot)  - is the rotational thermal energy
    E(trans)- is the translational thermal energy

Summary of contributions to the inner energy U:
Electronic energy                ...    -40.48948907 Eh
Zero point energy                ...      0.04497791 Eh      28.22 kcal/mol
Thermal vibrational correction   ...      0.00003641 Eh       0.02 kcal/mol
Thermal rotational correction    ...      0.00141627 Eh       0.89 kcal/mol
Thermal translational correction ...      0.00141627 Eh       0.89 kcal/mol
-----------------------------------------------------------------------
Total thermal energy                    -40.44164221 Eh

Summary of corrections to the electronic energy:
(perhaps to be used in another calculation)
Total thermal correction                  0.00286895 Eh       1.80 kcal/mol
Non-thermal (ZPE) correction              0.04497791 Eh      28.22 kcal/mol
-----------------------------------------------------------------------
Total correction                          0.04784686 Eh      30.02 kcal/mol

--------
ENTHALPY
--------

The enthalpy is H = U + kB*T
                kB is Boltzmann's constant
Total thermal energy              ...    -40.44164221 Eh
Thermal Enthalpy correction       ...      0.00094421 Eh       0.59 kcal/mol
-----------------------------------------------------------------------
Total Enthalpy                    ...    -40.44069800 Eh

Note: Rotational entropy computed according to Herzberg
Infrared and Raman Spectra, Chapter V,1, Van Nostrand Reinhold, 1945
Point Group:  Td, Symmetry Number:  12
Rotational constants in cm-1:     5.281803     5.281803     5.281803

Vibrational entropy computed according to the QRRHO of S. Grimme
Chem.Eur.J. 2012 18 9955 using a reference frequency of 100.0 cm-1

-------
ENTROPY
-------

The entropy contributions are T*S = T*(S(el)+S(vib)+S(rot)+S(trans))
     S(el)   - electronic entropy
     S(vib)  - vibrational entropy
     S(rot)  - rotational entropy
     S(trans)- translational entropy
The entropies will be listed as multiplied by the temperature to get
units of energy

Electronic entropy                ...      0.00000000 Eh      0.00 kcal/mol
Vibrational entropy               ...      0.00004188 Eh      0.03 kcal/mol
Rotational entropy                ...      0.00480755 Eh      3.02 kcal/mol
Translational entropy             ...      0.01627961 Eh     10.22 kcal/mol
-----------------------------------------------------------------------
Final entropy term                ...      0.02112905 Eh     13.26 kcal/mol

In case the symmetry of your molecule has not been determined correctly
or in case you have a reason to use a different symmetry number we print
out the resulting rotational entropy values for sn=1,12:

 non-linear molecules -----------------------------------
|  sn= 1 | S(rot)=       0.00715376 Eh      4.49 kcal/mol|
|  sn= 2 | S(rot)=       0.00649930 Eh      4.08 kcal/mol|
|  sn= 3 | S(rot)=       0.00611647 Eh      3.84 kcal/mol|
|  sn= 4 | S(rot)=       0.00584484 Eh      3.67 kcal/mol|
|  sn= 5 | S(rot)=       0.00563416 Eh      3.54 kcal/mol|
|  sn= 6 | S(rot)=       0.00546201 Eh      3.43 kcal/mol|
|  sn= 7 | S(rot)=       0.00531646 Eh      3.34 kcal/mol|
|  sn= 8 | S(rot)=       0.00519039 Eh      3.26 kcal/mol|
|  sn= 9 | S(rot)=       0.00507918 Eh      3.19 kcal/mol|
|  sn=10 | S(rot)=       0.00497970 Eh      3.12 kcal/mol|
|  sn=11 | S(rot)=       0.00488971 Eh      3.07 kcal/mol|
|  sn=12 | S(rot)=       0.00480755 Eh      3.02 kcal/mol|
 linear molecules ---------------------------------------
|  Dinfh | S(rot)=       0.00375444 Eh      2.36 kcal/mol|
|  Cinfv | S(rot)=       0.00440889 Eh      2.77 kcal/mol|
 --------------------------------------------------------

-------------------
GIBBS FREE ENERGY
-------------------

The Gibbs free energy is G = H - T*S

Total enthalpy                    ...    -40.44069800 Eh
Total entropy correction          ...     -0.02112905 Eh    -13.26 kcal/mol
-----------------------------------------------------------------------
Final Gibbs free energy         ...    -40.46182705 Eh

For completeness - the Gibbs free energy minus the electronic energy
G-E(el)                           ...      0.02766202 Eh     17.36 kcal/mol

                             ****ORCA TERMINATED NORMALLY****
TOTAL RUN TIME: 0 days 0 hours 1 minutes 11 seconds 299 msec
