                         Program Version 6.1.0  -  RELEASE   -
|  1> ! B3LYP 6-311+G(2d,p) AutoAux DEFGRID2 TIGHTSCF D3BJ
|  2>
|  3> * xyz 0 1
|  4> O    0.000000    0.000000    0.000000
|  5> H    0.757000    0.586000    0.000000
|  6> H   -0.757000    0.586000    0.000000
|  7> *
|  8>
|  9>                          ****END OF INPUT****

CARTESIAN COORDINATES (ANGSTROEM)
---------------------------------
  O      0.000000    0.000000    0.000000
  H      0.757000    0.586000    0.000000
  H     -0.757000    0.586000    0.000000

 Total Charge           Charge          ....    0
 Multiplicity           Mult            ....    1
 Number of Electrons    NEL             ....   10
 Basis Dimension        Dim             ....   39

ORBITAL ENERGIES
----------------

  NO   OCC          E(Eh)            E(eV)
   0   2.0000     -19.128956      -520.5253
   1   2.0000      -1.020890       -27.7798
   2   2.0000      -0.539687       -14.6856
   3   2.0000      -0.396203       -10.7812
   4   2.0000      -0.319790        -8.7019
   5   0.0000       0.023961         0.6520
   6   0.0000       0.099918         2.7189
   7   0.0000       0.153292         4.1713
   8   0.0000       0.153917         4.1883
   9   0.0000       0.176440         4.8012

MULLIKEN ATOMIC CHARGES
-----------------------
   0 O :   -0.541114
   1 H :    0.270557
   2 H :    0.270557
Sum of atomic charges:   -0.0000000

LOEWDIN ATOMIC CHARGES
----------------------
   0 O :   -0.228536
   1 H :    0.114268
   2 H :    0.114268

  Mayer bond orders larger than 0.100000
B(  0-O ,  1-H ) :   0.9499 B(  0-O ,  2-H ) :   0.9499

Dispersion correction           -0.000573874
FINAL SINGLE POINT ENERGY       -76.422969872283

DIPOLE MOMENT
-------------

Method             : SCF
Type of density    : Electron Density
Multiplicity       :   1
Irrep              :   0
Energy             :   -76.4223959978597378 Eh
Basis              : AO
                                X                 Y                 Z
Electronic contribution:     -0.000000021      -0.153635438       0.000000003
Nuclear contribution   :      0.000000000       0.975526666       0.000000000
                        -----------------------------------------
Total Dipole Moment    :     -0.000000021       0.821891228       0.000000003
                        -----------------------------------------
Magnitude (a.u.)       :      0.821891228
Magnitude (Debye)      :      2.089081480

Rotational constants in cm-1:            27.419037            14.591980             9.523646
Rotational constants in MHz :        822002.038101        437456.565871        285511.717172

                             ****ORCA TERMINATED NORMALLY****
TOTAL RUN TIME: 0 days 0 hours 0 minutes 1 seconds 594 msec
