                         Program Version 6.1.0  -  RELEASE   -
|  1> ! B3LYP def2-SVP Opt Freq TightSCF
|  2>
|  3> * xyz 0 1
|  4> O    0.000000    0.000000    0.000000
|  5> H    0.757000    0.586000    0.000000
|  6> H   -0.757000    0.586000    0.000000
|  7> *
|  8>
|  9>                          ****END OF INPUT****
 Total Charge           Charge          ....    0
 Multiplicity           Mult            ....    1
 Number of Electrons    NEL             ....   10
FINAL SINGLE POINT ENERGY       -76.321072287509
FINAL SINGLE POINT ENERGY       -76.321249869349
FINAL SINGLE POINT ENERGY       -76.321265781310
FINAL SINGLE POINT ENERGY       -76.321263283475
                    ***********************HURRAY********************

CARTESIAN COORDINATES (ANGSTROEM)
---------------------------------
  O      0.000000   -0.010263    0.000000
  H      0.757141    0.591132    0.000000
  H     -0.757141    0.591132    0.000000

 Multiplicity           Mult            ....    1
 Number of Electrons    NEL             ....   10
 Basis Dimension        Dim             ....   24

ORBITAL ENERGIES
----------------

  NO   OCC          E(Eh)            E(eV)
   0   2.0000     -19.116107      -520.1757
   1   2.0000      -0.976138       -26.5621
   2   2.0000      -0.508031       -13.8242
   3   2.0000      -0.364390        -9.9155
   4   2.0000      -0.288147        -7.8409
   5   0.0000       0.047712         1.2983
   6   0.0000       0.126620         3.4455
   7   0.0000       0.558295        15.1920
   8   0.0000       0.623847        16.9757
   9   0.0000       0.920748        25.0548

MULLIKEN ATOMIC CHARGES
-----------------------
   0 O :   -0.293612
   1 H :    0.146806
   2 H :    0.146806
Sum of atomic charges:   -0.0000000

LOEWDIN ATOMIC CHARGES
----------------------
   0 O :   -0.150139
   1 H :    0.075069
   2 H :    0.075069

  Mayer bond orders larger than 0.100000
B(  0-O ,  1-H ) :   1.0081 B(  0-O ,  2-H ) :   1.0081

FINAL SINGLE POINT ENERGY       -76.321269043279

DIPOLE MOMENT
-------------

Method             : SCF
Type of density    : Electron Density
Multiplicity       :   1
Irrep              :   0
Energy             :   -76.3212690432791163 Eh
Basis              : AO
                                X                 Y                 Z
Electronic contribution:      0.000000007      -0.212705417       0.000000000
Nuclear contribution   :     -0.000000015       1.001154616       0.000000000
                        -----------------------------------------
Total Dipole Moment    :     -0.000000008       0.788449199       0.000000000
                        -----------------------------------------
Magnitude (a.u.)       :      0.788449199
Magnitude (Debye)      :      2.004078597

VIBRATIONAL FREQUENCIES
-----------------------

Scaling factor for frequencies =  1.000000000  (already applied!)

     0:       0.00 cm**-1
     1:       0.00 cm**-1
     2:       0.00 cm**-1
     3:       0.00 cm**-1
     4:       0.00 cm**-1
     5:       0.00 cm**-1
     6:    1637.64 cm**-1
     7:    3787.08 cm**-1
     8:    3882.06 cm**-1

IR SPECTRUM
-----------

 Mode   freq       eps      Int      T**2         TX        TY        TZ
       cm**-1   L/(mol*cm) km/mol    a.u.
----------------------------------------------------------------------------
  6:   1637.64   0.010942   55.30  0.002085  ( 0.000000 -0.045663 -0.000000)
  7:   3787.08   0.000924    4.67  0.000076  ( 0.000000 -0.008728 -0.000000)
  8:   3882.06   0.005245   26.51  0.000422  (-0.020533 -0.000000  0.000000)

--------------------------
THERMOCHEMISTRY AT 298.15K
--------------------------

Temperature         ...   298.15 K
Pressure            ...     1.00 atm
Total Mass          ...    18.02 AMU
Quasi RRHO          ...     True
Cut-Off Frequency   ...     1.00 cm^-1

Throughout the following assumptions are being made:
  (1) The electronic state is orbitally nondegenerate
  (2) There are no thermally accessible electronically excited states
  (3) Hindered rotations indicated by low frequency modes are not
      treated as such but are treated as vibrations and this may
      cause some error
  (4) All equations used are the standard statistical mechanics
      equations for an ideal gas
  (5) All vibrations are strictly harmonic

freq.    1637.64  E(vib)   ...       0.00
freq.    3787.08  E(vib)   ...       0.00
freq.    3882.06  E(vib)   ...       0.00

------------
INNER ENERGY
------------

The inner energy is: U= E(el) + E(ZPE) + E(vib) + E(rot) + E(trans)
    E(el)   - is the total energy from the electronic structure calculation
              = E(kin-el) + E(nuc-el) + E(el-el) + E(nuc-nuc)
    E(ZPE)  - the the zero temperature vibrational energy from the frequency calculation
    E(vib)  - the the finite temperature correction to E(ZPE) due to population
              of excited vibrational states
    E(rot)  - is the rotational thermal energy
    E(trans)- is the translational thermal energy

Summary of contributions to the inner energy U:
Electronic energy                ...    -76.32126904 Eh
Zero point energy                ...      0.02120239 Eh      13.30 kcal/mol
Thermal vibrational correction   ...      0.00000276 Eh       0.00 kcal/mol
Thermal rotational correction    ...      0.00141627 Eh       0.89 kcal/mol
Thermal translational correction ...      0.00141627 Eh       0.89 kcal/mol
-----------------------------------------------------------------------
Total thermal energy                    -76.29723135 Eh

Summary of corrections to the electronic energy:
(perhaps to be used in another calculation)
Total thermal correction                  0.00283530 Eh       1.78 kcal/mol
Non-thermal (ZPE) correction              0.02120239 Eh      13.30 kcal/mol
-----------------------------------------------------------------------
Total correction                          0.02403769 Eh      15.08 kcal/mol

--------
ENTHALPY
--------

The enthalpy is H = U + kB*T
                kB is Boltzmann's constant
Total thermal energy              ...    -76.29723135 Eh
Thermal Enthalpy correction       ...      0.00094421 Eh       0.59 kcal/mol
-----------------------------------------------------------------------
Total Enthalpy                    ...    -76.29628714 Eh

Note: Rotational entropy computed according to Herzberg
Infrared and Raman Spectra, Chapter V,1, Van Nostrand Reinhold, 1945
Point Group:  C2v, Symmetry Number:   2
Rotational constants in cm-1:    26.033260    14.586572     9.348538

Vibrational entropy computed according to the QRRHO of S. Grimme
Chem.Eur.J. 2012 18 9955 using a reference frequency of 100.0 cm-1

-------
ENTROPY
-------

The entropy contributions are T*S = T*(S(el)+S(vib)+S(rot)+S(trans))
     S(el)   - electronic entropy
     S(vib)  - vibrational entropy
     S(rot)  - rotational entropy
     S(trans)- translational entropy
The entropies will be listed as multiplied by the temperature to get
units of energy

Electronic entropy                ...      0.00000000 Eh      0.00 kcal/mol
Vibrational entropy               ...      0.00000311 Eh      0.00 kcal/mol
Rotational entropy                ...      0.00499716 Eh      3.14 kcal/mol
Translational entropy             ...      0.01644380 Eh     10.32 kcal/mol
-----------------------------------------------------------------------
Final entropy term                ...      0.02144407 Eh     13.46 kcal/mol

In case the symmetry of your molecule has not been determined correctly
or in case you have a reason to use a different symmetry number we print
out the resulting rotational entropy values for sn=1,12:

 non-linear molecules -----------------------------------
|  sn= 1 | S(rot)=       0.00565161 Eh      3.55 kcal/mol|
|  sn= 2 | S(rot)=       0.00499716 Eh      3.14 kcal/mol|
|  sn= 3 | S(rot)=       0.00461433 Eh      2.90 kcal/mol|
|  sn= 4 | S(rot)=       0.00434270 Eh      2.73 kcal/mol|
|  sn= 5 | S(rot)=       0.00413201 Eh      2.59 kcal/mol|
|  sn= 6 | S(rot)=       0.00395987 Eh      2.48 kcal/mol|
|  sn= 7 | S(rot)=       0.00381432 Eh      2.39 kcal/mol|
|  sn= 8 | S(rot)=       0.00368824 Eh      2.31 kcal/mol|
|  sn= 9 | S(rot)=       0.00357704 Eh      2.24 kcal/mol|
|  sn=10 | S(rot)=       0.00347756 Eh      2.18 kcal/mol|
|  sn=11 | S(rot)=       0.00338757 Eh      2.13 kcal/mol|
|  sn=12 | S(rot)=       0.00330541 Eh      2.07 kcal/mol|
 linear molecules ---------------------------------------
|  Dinfh | S(rot)=       0.00321535 Eh      2.02 kcal/mol|
|  Cinfv | S(rot)=       0.00386981 Eh      2.43 kcal/mol|
 --------------------------------------------------------

-------------------
GIBBS FREE ENERGY
-------------------

The Gibbs free energy is G = H - T*S

Total enthalpy                    ...    -76.29628714 Eh
Total entropy correction          ...     -0.02144407 Eh    -13.46 kcal/mol
-----------------------------------------------------------------------
Final Gibbs free energy         ...    -76.31773121 Eh

For completeness - the Gibbs free energy minus the electronic energy
G-E(el)                           ...      0.00353783 Eh      2.22 kcal/mol

                             ****ORCA TERMINATED NORMALLY****
TOTAL RUN TIME: 0 days 0 hours 0 minutes 17 seconds 298 msec
