                         Program Version 6.1.0-f.0  -   RELEASE   -
|  1> ! B3LYP 6-31+G(d,p) NumFreq
|  2> %elprop Polar 1 end
|  3>
|  4> * xyz 0 1
|  5> O    0.000000    0.000000    0.000000
|  6> H    0.757000    0.586000    0.000000
|  7> H   -0.757000    0.586000    0.000000
|  8> *
|  9>
| 10>                          ****END OF INPUT****

CARTESIAN COORDINATES (ANGSTROEM)
---------------------------------
  O      0.000000    0.000000    0.000000
  H      0.757000    0.586000    0.000000
  H     -0.757000    0.586000    0.000000

 Total Charge           Charge          ....    0
 Multiplicity           Mult            ....    1
 Number of Electrons    NEL             ....   10
 Basis Dimension        Dim             ....   28

ORBITAL ENERGIES
----------------

  NO   OCC          E(Eh)            E(eV)
   0   2.0000     -19.159955      -521.3689
   1   2.0000      -1.022982       -27.8368
   2   2.0000      -0.539602       -14.6833
   3   2.0000      -0.393604       -10.7105
   4   2.0000      -0.318388        -8.6638
   5   0.0000       0.031598         0.8598
   6   0.0000       0.118582         3.2268
   7   0.0000       0.157787         4.2936
   8   0.0000       0.159641         4.3441
   9   0.0000       0.209901         5.7117

MULLIKEN ATOMIC CHARGES
-----------------------
   0 O :   -0.707069
   1 H :    0.353534
   2 H :    0.353534
Sum of atomic charges:   -0.0000000

LOEWDIN ATOMIC CHARGES
----------------------
   0 O :   -0.460384
   1 H :    0.230192
   2 H :    0.230192

  Mayer bond orders larger than 0.100000
B(  0-O ,  1-H ) :   0.8627 B(  0-O ,  2-H ) :   0.8627

FINAL SINGLE POINT ENERGY       -76.396020073854

DIPOLE MOMENT
-------------

Method             : SCF
Type of density    : Electron Density
Multiplicity       :   1
Irrep              :   0
Energy             :   -76.3960200738537054 Eh
Basis              : AO
                                X                 Y                 Z
Electronic contribution:     -0.000000005      -0.104390628       0.000000017
Nuclear contribution   :      0.000000000       0.975526666       0.000000000
                        -----------------------------------------
Total Dipole Moment    :     -0.000000005       0.871136039       0.000000017
                        -----------------------------------------
Magnitude (a.u.)       :      0.871136039
Magnitude (Debye)      :      2.214251841

VIBRATIONAL FREQUENCIES
-----------------------

Scaling factor for frequencies =  1.000000000  (already applied!)

     0:       0.00 cm**-1
     1:       0.00 cm**-1
     2:       0.00 cm**-1
     3:       0.00 cm**-1
     4:       0.00 cm**-1
     5:       0.00 cm**-1
     6:    1594.14 cm**-1
     7:    3921.08 cm**-1
     8:    4029.92 cm**-1

IR SPECTRUM
-----------

 Mode   freq       eps      Int      T**2         TX        TY        TZ
       cm**-1   L/(mol*cm) km/mol    a.u.
----------------------------------------------------------------------------
  6:   1594.14   0.017733   89.62  0.003471  ( 0.000046  0.058919 -0.000000)
  7:   3921.08   0.001458    7.37  0.000116  (-0.000232 -0.010771  0.000000)
  8:   4029.92   0.010073   50.91  0.000780  (-0.027921  0.000701 -0.000000)

--------------------------
THERMOCHEMISTRY AT 298.15K
--------------------------

Temperature         ...   298.15 K
Pressure            ...     1.00 atm
Total Mass          ...    18.02 AMU
Quasi RRHO          ...     True
Cut-Off Frequency   ...     1.00 cm^-1

Throughout the following assumptions are being made:
  (1) The electronic state is orbitally nondegenerate
  (2) There are no thermally accessible electronically excited states
  (3) Hindered rotations indicated by low frequency modes are not
      treated as such but are treated as vibrations and this may
      cause some error
  (4) All equations used are the standard statistical mechanics
      equations for an ideal gas
  (5) All vibrations are strictly harmonic

freq.    1594.14  E(vib)   ...       0.00
freq.    3921.08  E(vib)   ...       0.00
freq.    4029.92  E(vib)   ...       0.00

------------
INNER ENERGY
------------

The inner energy is: U= E(el) + E(ZPE) + E(vib) + E(rot) + E(trans)
    E(el)   - is the total energy from the electronic structure calculation
              = E(kin-el) + E(nuc-el) + E(el-el) + E(nuc-nuc)
    E(ZPE)  - the the zero temperature vibrational energy from the frequency calculation
    E(vib)  - the the finite temperature correction to E(ZPE) due to population
              of excited vibrational states
    E(rot)  - is the rotational thermal energy
    E(trans)- is the translational thermal energy

Summary of contributions to the inner energy U:
Electronic energy                ...    -76.39602008 Eh
Zero point energy                ...      0.02174543 Eh      13.65 kcal/mol
Thermal vibrational correction   ...      0.00000332 Eh       0.00 kcal/mol
Thermal rotational correction    ...      0.00141627 Eh       0.89 kcal/mol
Thermal translational correction ...      0.00141627 Eh       0.89 kcal/mol
-----------------------------------------------------------------------
Total thermal energy                    -76.37143879 Eh

Summary of corrections to the electronic energy:
(perhaps to be used in another calculation)
Total thermal correction                  0.00283586 Eh       1.78 kcal/mol
Non-thermal (ZPE) correction              0.02174543 Eh      13.65 kcal/mol
-----------------------------------------------------------------------
Total correction                          0.02458129 Eh      15.42 kcal/mol

--------
ENTHALPY
--------

The enthalpy is H = U + kB*T
                kB is Boltzmann's constant
Total thermal energy              ...    -76.37143879 Eh
Thermal Enthalpy correction       ...      0.00094421 Eh       0.59 kcal/mol
-----------------------------------------------------------------------
Total Enthalpy                    ...    -76.37049458 Eh

Note: Rotational entropy computed according to Herzberg
Infrared and Raman Spectra, Chapter V,1, Van Nostrand Reinhold, 1945
Point Group:  C2v, Symmetry Number:   2
Rotational constants in cm-1:    27.419060    14.591993     9.523654

Vibrational entropy computed according to the QRRHO of S. Grimme
Chem.Eur.J. 2012 18 9955 using a reference frequency of 100.0 cm-1

-------
ENTROPY
-------

The entropy contributions are T*S = T*(S(el)+S(vib)+S(rot)+S(trans))
     S(el)   - electronic entropy
     S(vib)  - vibrational entropy
     S(rot)  - rotational entropy
     S(trans)- translational entropy
The entropies will be listed as multiplied by the temperature to get
units of energy

Electronic entropy                ...      0.00000000 Eh      0.00 kcal/mol
Vibrational entropy               ...      0.00000375 Eh      0.00 kcal/mol
Rotational entropy                ...      0.00496374 Eh      3.11 kcal/mol
Translational entropy             ...      0.01644380 Eh     10.32 kcal/mol
-----------------------------------------------------------------------
Final entropy term                ...      0.02141128 Eh     13.44 kcal/mol

In case the symmetry of your molecule has not been determined correctly
or in case you have a reason to use a different symmetry number we print
out the resulting rotational entropy values for sn=1,12:

 non-linear molecules -----------------------------------
|  sn= 1 | S(rot)=       0.00561819 Eh      3.53 kcal/mol|
|  sn= 2 | S(rot)=       0.00496374 Eh      3.11 kcal/mol|
|  sn= 3 | S(rot)=       0.00458090 Eh      2.87 kcal/mol|
|  sn= 4 | S(rot)=       0.00430928 Eh      2.70 kcal/mol|
|  sn= 5 | S(rot)=       0.00409859 Eh      2.57 kcal/mol|
|  sn= 6 | S(rot)=       0.00392645 Eh      2.46 kcal/mol|
|  sn= 7 | S(rot)=       0.00378090 Eh      2.37 kcal/mol|
|  sn= 8 | S(rot)=       0.00365482 Eh      2.29 kcal/mol|
|  sn= 9 | S(rot)=       0.00354362 Eh      2.22 kcal/mol|
|  sn=10 | S(rot)=       0.00344414 Eh      2.16 kcal/mol|
|  sn=11 | S(rot)=       0.00335415 Eh      2.10 kcal/mol|
|  sn=12 | S(rot)=       0.00327199 Eh      2.05 kcal/mol|
 linear molecules ---------------------------------------
|  Dinfh | S(rot)=       0.00319783 Eh      2.01 kcal/mol|
|  Cinfv | S(rot)=       0.00385229 Eh      2.42 kcal/mol|
 --------------------------------------------------------

-------------------
GIBBS FREE ENERGY
-------------------

The Gibbs free energy is G = H - T*S

Total enthalpy                    ...    -76.37049458 Eh
Total entropy correction          ...     -0.02141128 Eh    -13.44 kcal/mol
-----------------------------------------------------------------------
Final Gibbs free energy         ...    -76.39190586 Eh

For completeness - the Gibbs free energy minus the electronic energy
G-E(el)                           ...      0.00411422 Eh      2.58 kcal/mol

                             ****ORCA TERMINATED NORMALLY****
TOTAL RUN TIME: 0 days 0 hours 0 minutes 23 seconds 351 msec
