                         Program Version 6.1.0  -  RELEASE   -
|  1> ! B3LYP def2-SVP Opt Freq TightSCF
|  2>
|  3> * xyz 0 1
|  4> O   -1.160000   0.000000   0.000000
|  5> C    0.000000   0.000000   0.000000
|  6> O    1.160000   0.000000   0.000000
|  7> *
|  8>
|  9>                          ****END OF INPUT****
 Total Charge           Charge          ....    0
 Multiplicity           Mult            ....    1
 Number of Electrons    NEL             ....   22
FINAL SINGLE POINT ENERGY      -188.360406079655
FINAL SINGLE POINT ENERGY      -188.360449818482
FINAL SINGLE POINT ENERGY      -188.360461519681
                    ***********************HURRAY********************

CARTESIAN COORDINATES (ANGSTROEM)
---------------------------------
  O     -1.163306   -0.000000    0.000000
  C      0.000000    0.000000   -0.000000
  O      1.163306   -0.000000    0.000000

 Multiplicity           Mult            ....    1
 Number of Electrons    NEL             ....   22
 Basis Dimension        Dim             ....   42

ORBITAL ENERGIES
----------------

  NO   OCC          E(Eh)            E(eV)
   0   2.0000     -19.214734      -522.8595
   1   2.0000     -19.214666      -522.8577
   2   2.0000     -10.376416      -282.3566
   3   2.0000      -1.147182       -31.2164
   4   2.0000      -1.108361       -30.1600
   5   2.0000      -0.550939       -14.9918
   6   2.0000      -0.516149       -14.0451
   7   2.0000      -0.516149       -14.0451
   8   2.0000      -0.514080       -13.9888
   9   2.0000      -0.370165       -10.0727
  10   2.0000      -0.370165       -10.0727
  11   0.0000       0.033532         0.9125
  12   0.0000       0.033532         0.9125
  13   0.0000       0.061469         1.6727
  14   0.0000       0.342240         9.3128
  15   0.0000       0.417369        11.3572

MULLIKEN ATOMIC CHARGES
-----------------------
   0 O :   -0.132294
   1 C :    0.264588
   2 O :   -0.132294
Sum of atomic charges:    0.0000000

LOEWDIN ATOMIC CHARGES
----------------------
   0 O :   -0.066880
   1 C :    0.133759
   2 O :   -0.066880

  Mayer bond orders larger than 0.100000
B(  0-O ,  1-C ) :   2.1723 B(  0-O ,  2-O ) :   0.2703 B(  1-C ,  2-O ) :   2.1723

FINAL SINGLE POINT ENERGY      -188.360445800216

DIPOLE MOMENT
-------------

Method             : SCF
Type of density    : Electron Density
Multiplicity       :   1
Irrep              :   0
Energy             :  -188.3604458002163256 Eh
Basis              : AO
                                X                 Y                 Z
Electronic contribution:     -0.000000023       0.000000039      -0.000000015
Nuclear contribution   :     -0.000000000      -0.000000000       0.000000000
                        -----------------------------------------
Total Dipole Moment    :     -0.000000023       0.000000038      -0.000000015
                        -----------------------------------------
Magnitude (a.u.)       :      0.000000047
Magnitude (Debye)      :      0.000000120

VIBRATIONAL FREQUENCIES
-----------------------

Scaling factor for frequencies =  1.000000000  (already applied!)

     0:       0.00 cm**-1
     1:       0.00 cm**-1
     2:       0.00 cm**-1
     3:       0.00 cm**-1
     4:       0.00 cm**-1
     5:     652.11 cm**-1
     6:     652.11 cm**-1
     7:    1387.79 cm**-1
     8:    2469.90 cm**-1

IR SPECTRUM
-----------

 Mode   freq       eps      Int      T**2         TX        TY        TZ
       cm**-1   L/(mol*cm) km/mol    a.u.
----------------------------------------------------------------------------
  5:    652.11   0.006484   32.77  0.003103  ( 0.000000  0.022156  0.051108)
  6:    652.11   0.006484   32.77  0.003103  ( 0.000000  0.051108 -0.022156)
  7:   1387.79   0.000000    0.00  0.000000  (-0.000000  0.000000  0.000000)
  8:   2469.90   0.121135  612.17  0.015305  (-0.123714 -0.000000  0.000000)

--------------------------
THERMOCHEMISTRY AT 298.15K
--------------------------

Temperature         ...   298.15 K
Pressure            ...     1.00 atm
Total Mass          ...    44.01 AMU
Quasi RRHO          ...     True
Cut-Off Frequency   ...     1.00 cm^-1
The molecule is recognized as being linear

Throughout the following assumptions are being made:
  (1) The electronic state is orbitally nondegenerate
  (2) There are no thermally accessible electronically excited states
  (3) Hindered rotations indicated by low frequency modes are not
      treated as such but are treated as vibrations and this may
      cause some error
  (4) All equations used are the standard statistical mechanics
      equations for an ideal gas
  (5) All vibrations are strictly harmonic

freq.     652.11  E(vib)   ...       0.08
freq.     652.11  E(vib)   ...       0.08
freq.    1387.79  E(vib)   ...       0.00
freq.    2469.90  E(vib)   ...       0.00

------------
INNER ENERGY
------------

The inner energy is: U= E(el) + E(ZPE) + E(vib) + E(rot) + E(trans)
    E(el)   - is the total energy from the electronic structure calculation
              = E(kin-el) + E(nuc-el) + E(el-el) + E(nuc-nuc)
    E(ZPE)  - the the zero temperature vibrational energy from the frequency calculation
    E(vib)  - the the finite temperature correction to E(ZPE) due to population
              of excited vibrational states
    E(rot)  - is the rotational thermal energy
    E(trans)- is the translational thermal energy

Summary of contributions to the inner energy U:
Electronic energy                ...   -188.36044580 Eh
Zero point energy                ...      0.01175966 Eh       7.38 kcal/mol
Thermal vibrational correction   ...      0.00027484 Eh       0.17 kcal/mol
Thermal rotational correction    ...      0.00094418 Eh       0.59 kcal/mol
Thermal translational correction ...      0.00141627 Eh       0.89 kcal/mol
-----------------------------------------------------------------------
Total thermal energy                   -188.34605085 Eh

Summary of corrections to the electronic energy:
(perhaps to be used in another calculation)
Total thermal correction                  0.00263529 Eh       1.65 kcal/mol
Non-thermal (ZPE) correction              0.01175966 Eh       7.38 kcal/mol
-----------------------------------------------------------------------
Total correction                          0.01439495 Eh       9.03 kcal/mol

--------
ENTHALPY
--------

The enthalpy is H = U + kB*T
                kB is Boltzmann's constant
Total thermal energy              ...   -188.34605085 Eh
Thermal Enthalpy correction       ...      0.00094421 Eh       0.59 kcal/mol
-----------------------------------------------------------------------
Total Enthalpy                    ...   -188.34510664 Eh

Note: Rotational entropy computed according to Herzberg
Infrared and Raman Spectra, Chapter V,1, Van Nostrand Reinhold, 1945
Point Group:  D(inf)h, Symmetry Number:   2
Rotational constants in cm-1:     0.000000     0.389302     0.389302

Vibrational entropy computed according to the QRRHO of S. Grimme
Chem.Eur.J. 2012 18 9955 using a reference frequency of 100.0 cm-1

-------
ENTROPY
-------

The entropy contributions are T*S = T*(S(el)+S(vib)+S(rot)+S(trans))
     S(el)   - electronic entropy
     S(vib)  - vibrational entropy
     S(rot)  - rotational entropy
     S(trans)- translational entropy
The entropies will be listed as multiplied by the temperature to get
units of energy

Electronic entropy                ...      0.00000000 Eh      0.00 kcal/mol
Vibrational entropy               ...      0.00035931 Eh      0.23 kcal/mol
Rotational entropy                ...      0.00621655 Eh      3.90 kcal/mol
Translational entropy             ...      0.01770880 Eh     11.11 kcal/mol
-----------------------------------------------------------------------
Final entropy term                ...      0.02428466 Eh     15.24 kcal/mol

-------------------
GIBBS FREE ENERGY
-------------------

The Gibbs free energy is G = H - T*S

Total enthalpy                    ...   -188.34510664 Eh
Total entropy correction          ...     -0.02428466 Eh    -15.24 kcal/mol
-----------------------------------------------------------------------
Final Gibbs free energy         ...   -188.36939129 Eh

For completeness - the Gibbs free energy minus the electronic energy
G-E(el)                           ...     -0.00894549 Eh     -5.61 kcal/mol

                             ****ORCA TERMINATED NORMALLY****
TOTAL RUN TIME: 0 days 0 hours 0 minutes 40 seconds 179 msec
